Program Version,EnergyPlus, Version 26.1.0-6f2e40d102, YMD=2026.04.13 21:17
1,5,Environment Title[],Latitude[deg],Longitude[deg],Time Zone[],Elevation[m]
2,8,Day of Simulation[],Month[],Day of Month[],DST Indicator[1=yes 0=no],Hour[],StartMinute[],EndMinute[],DayType
3,5,Cumulative Day of Simulation[],Month[],Day of Month[],DST Indicator[1=yes 0=no],DayType  ! When Daily Meters Requested
4,2,Cumulative Days of Simulation[],Month[]  ! When Monthly Meters Requested
5,1,Cumulative Days of Simulation[] ! When Run Period Meters Requested
6,1,Calendar Year of Simulation[] ! When Annual Meters Requested
135,1,Electricity:Facility [J] !Hourly
3420,1,ElectricityNet:Facility [J] !Hourly
3738,1,NaturalGas:Facility [J] !Hourly
End of Data Dictionary
1,RUNPERIOD FULL YEAR,  22.32, 114.17,   8.00,  65.00
2,1, 1, 1, 0, 1, 0.00,60.00,Holiday
135,46358994.54911919
3420,46358994.54911918
3738,6791184.0
2,1, 1, 1, 0, 2, 0.00,60.00,Holiday
135,46359235.70955594
3420,46359235.70955593
3738,6791184.0
2,1, 1, 1, 0, 3, 0.00,60.00,Holiday
135,46359235.70955594
3420,46359235.70955593
3738,6791184.0
2,1, 1, 1, 0, 4, 0.00,60.00,Holiday
135,46359235.70955594
3420,46359235.70955593
3738,6791184.0
2,1, 1, 1, 0, 5, 0.00,60.00,Holiday
135,46359235.70955594
3420,46359235.70955593
3738,6791184.0
2,1, 1, 1, 0, 6, 0.00,60.00,Holiday
135,46359235.70955594
3420,46359235.70955593
3738,6791184.0
2,1, 1, 1, 0, 7, 0.00,60.00,Holiday
135,65909926.82702957
3420,65909926.82702957
3738,6791184.0
2,1, 1, 1, 0, 8, 0.00,60.00,Holiday
135,47272434.18386557
3420,47272434.18386557
3738,6791184.0
2,1, 1, 1, 0, 9, 0.00,60.00,Holiday
135,46644277.33482671
3420,46644277.33482671
3738,6791184.0
2,1, 1, 1, 0,10, 0.00,60.00,Holiday
135,46312873.95982133
3420,46312873.95982133
3738,6791184.0
2,1, 1, 1, 0,11, 0.00,60.00,Holiday
135,46288812.515972845
3420,46288812.51597284
3738,6791184.0
2,1, 1, 1, 0,12, 0.00,60.00,Holiday
135,57540108.99906981
3420,57540108.9990698
3738,6791184.0
2,1, 1, 1, 0,13, 0.00,60.00,Holiday
135,68050495.15883113
3420,68050495.15883112
3738,6791184.0
2,1, 1, 1, 0,14, 0.00,60.00,Holiday
135,73214499.9488135
3420,73214499.9488135
3738,6791184.0
2,1, 1, 1, 0,15, 0.00,60.00,Holiday
135,68954966.32324295
3420,68954966.32324293
3738,6791184.0
2,1, 1, 1, 0,16, 0.00,60.00,Holiday
135,58461420.7961822
3420,58461420.796182185
3738,6791184.0
2,1, 1, 1, 0,17, 0.00,60.00,Holiday
135,46468867.974076875
3420,46468867.974076875
3738,6791184.0
2,1, 1, 1, 0,18, 0.00,60.00,Holiday
135,52019432.37866635
3420,52019432.37866635
3738,6791184.0
2,1, 1, 1, 0,19, 0.00,60.00,Holiday
135,57298912.8740647
3420,57298912.8740647
3738,6791184.0
2,1, 1, 1, 0,20, 0.00,60.00,Holiday
135,48904615.70955594
3420,48904615.70955593
3738,6791184.0
2,1, 1, 1, 0,21, 0.00,60.00,Holiday
135,48904615.70955594
3420,48904615.70955593
3738,6791184.0
2,1, 1, 1, 0,22, 0.00,60.00,Holiday
135,48904615.70955594
3420,48904615.70955593
3738,6791184.0
2,1, 1, 1, 0,23, 0.00,60.00,Holiday
135,48904615.70955594
3420,48904615.70955593
3738,6791184.0
2,1, 1, 1, 0,24, 0.00,60.00,Holiday
135,48904615.70955594
3420,48904615.70955593
3738,6791184.0
2,2, 1, 2, 0, 1, 0.00,60.00,Monday
135,57609860.11373618
3420,57609860.11373618
3738,6791184.0
2,2, 1, 2, 0, 2, 0.00,60.00,Monday
135,57609860.11373618
3420,57609860.11373618
3738,6791184.0
2,2, 1, 2, 0, 3, 0.00,60.00,Monday
135,57609860.11373618
3420,57609860.11373618
3738,6791184.0
2,2, 1, 2, 0, 4, 0.00,60.00,Monday
135,57609860.11373618
3420,57609860.11373618
3738,6791184.0
2,2, 1, 2, 0, 5, 0.00,60.00,Monday
135,57609860.11373618
3420,57609860.11373618
3738,6791184.0
2,2, 1, 2, 0, 6, 0.00,60.00,Monday
135,57609860.11373618
3420,57609860.11373618
3738,6791184.0
2,2, 1, 2, 0, 7, 0.00,60.00,Monday
135,108657557.20084919
3420,108657557.20084919
3738,6791184.0
2,2, 1, 2, 0, 8, 0.00,60.00,Monday
135,164842514.3301295
3420,164842514.33012956
3738,6791184.0
2,2, 1, 2, 0, 9, 0.00,60.00,Monday
135,343252312.33549875
3420,343252312.33549875
3738,6791184.0
2,2, 1, 2, 0,10, 0.00,60.00,Monday
135,307891592.41617334
3420,307891592.4161733
3738,6791184.0
2,2, 1, 2, 0,11, 0.00,60.00,Monday
135,306111503.5660304
3420,306111503.5660304
3738,20522946.889477096
2,2, 1, 2, 0,12, 0.00,60.00,Monday
135,320541306.4161777
3420,320541306.41617763
3738,25783061.26601292
2,2, 1, 2, 0,13, 0.00,60.00,Monday
135,320572165.9785485
3420,320572165.97854847
3738,31704199.91534275
2,2, 1, 2, 0,14, 0.00,60.00,Monday
135,335953142.68625057
3420,335953142.6862506
3738,26445698.458229795
2,2, 1, 2, 0,15, 0.00,60.00,Monday
135,320911014.9445321
3420,320911014.9445321
3738,20247303.655105125
2,2, 1, 2, 0,16, 0.00,60.00,Monday
135,319164066.6872377
3420,319164066.68723774
3738,20171244.426276952
2,2, 1, 2, 0,17, 0.00,60.00,Monday
135,332983902.6955825
3420,332983902.6955826
3738,20831758.95019327
2,2, 1, 2, 0,18, 0.00,60.00,Monday
135,252004838.67275542
3420,252004838.67275542
3738,15462740.011474118
2,2, 1, 2, 0,19, 0.00,60.00,Monday
135,163598131.91214836
3420,163598131.9121484
3738,11017745.091727361
2,2, 1, 2, 0,20, 0.00,60.00,Monday
135,144338217.33374834
3420,144338217.3337484
3738,10940572.19877801
2,2, 1, 2, 0,21, 0.00,60.00,Monday
135,130382217.17463326
3420,130382217.17463326
3738,10957765.309461117
2,2, 1, 2, 0,22, 0.00,60.00,Monday
135,123433888.09303951
3420,123433888.09303951
3738,6791184.0
2,2, 1, 2, 0,23, 0.00,60.00,Monday
135,77772782.75072592
3420,77772782.75072592
3738,6791184.0
2,2, 1, 2, 0,24, 0.00,60.00,Monday
135,72442469.3608459
3420,72442469.36084588
3738,6791184.0
2,3, 1, 3, 0, 1, 0.00,60.00,Tuesday
135,58189365.04299053
3420,58189365.04299053
3738,6791184.0
2,3, 1, 3, 0, 2, 0.00,60.00,Tuesday
135,57609860.11373618
3420,57609860.11373618
3738,6791184.0
2,3, 1, 3, 0, 3, 0.00,60.00,Tuesday
135,57609860.11373618
3420,57609860.11373618
3738,6791184.0
2,3, 1, 3, 0, 4, 0.00,60.00,Tuesday
135,57609860.11373618
3420,57609860.11373618
3738,6791184.0
2,3, 1, 3, 0, 5, 0.00,60.00,Tuesday
135,57609860.11373618
3420,57609860.11373618
3738,6791184.0
2,3, 1, 3, 0, 6, 0.00,60.00,Tuesday
135,57609860.11373618
3420,57609860.11373618
3738,6791184.0
2,3, 1, 3, 0, 7, 0.00,60.00,Tuesday
135,117846646.34604317
3420,117846646.34604318
3738,6791184.0
2,3, 1, 3, 0, 8, 0.00,60.00,Tuesday
135,172320967.18015772
3420,172320967.18015772
3738,6791184.0
2,3, 1, 3, 0, 9, 0.00,60.00,Tuesday
135,351252158.47864777
3420,351252158.4786477
3738,6791184.0
2,3, 1, 3, 0,10, 0.00,60.00,Tuesday
135,322605003.2597691
3420,322605003.2597691
3738,6791184.0
2,3, 1, 3, 0,11, 0.00,60.00,Tuesday
135,319897023.92610145
3420,319897023.9261015
3738,20527776.689229637
2,3, 1, 3, 0,12, 0.00,60.00,Tuesday
135,328719954.22826517
3420,328719954.22826517
3738,25789649.79643507
2,3, 1, 3, 0,13, 0.00,60.00,Tuesday
135,317023186.64652985
3420,317023186.6465299
3738,31710588.732130073
2,3, 1, 3, 0,14, 0.00,60.00,Tuesday
135,322944679.2982652
3420,322944679.2982653
3738,27624136.376359127
2,3, 1, 3, 0,15, 0.00,60.00,Tuesday
135,304151758.94276685
3420,304151758.94276685
3738,19182540.90825281
2,3, 1, 3, 0,16, 0.00,60.00,Tuesday
135,304623791.957637
3420,304623791.9576371
3738,20167421.53868155
2,3, 1, 3, 0,17, 0.00,60.00,Tuesday
135,318083347.10999155
3420,318083347.10999155
3738,21150616.453555714
2,3, 1, 3, 0,18, 0.00,60.00,Tuesday
135,230477007.54488295
3420,230477007.54488295
3738,15156794.778487384
2,3, 1, 3, 0,19, 0.00,60.00,Tuesday
135,136461160.27868816
3420,136461160.2786882
3738,15288995.807703689
2,3, 1, 3, 0,20, 0.00,60.00,Tuesday
135,113884110.8209181
3420,113884110.82091811
3738,6791184.0
2,3, 1, 3, 0,21, 0.00,60.00,Tuesday
135,100940816.37318467
3420,100940816.37318467
3738,10967065.72714793
2,3, 1, 3, 0,22, 0.00,60.00,Tuesday
135,96287113.21615261
3420,96287113.21615261
3738,6791184.0
2,3, 1, 3, 0,23, 0.00,60.00,Tuesday
135,77772782.75072592
3420,77772782.75072592
3738,6791184.0
2,3, 1, 3, 0,24, 0.00,60.00,Tuesday
135,72442469.3608459
3420,72442469.36084588
3738,6791184.0
2,4, 1, 4, 0, 1, 0.00,60.00,Wednesday
135,58189365.04299053
3420,58189365.04299053
3738,6791184.0
2,4, 1, 4, 0, 2, 0.00,60.00,Wednesday
135,57609860.11373618
3420,57609860.11373618
3738,6791184.0
2,4, 1, 4, 0, 3, 0.00,60.00,Wednesday
135,57609860.11373618
3420,57609860.11373618
3738,6791184.0
2,4, 1, 4, 0, 4, 0.00,60.00,Wednesday
135,57609860.11373618
3420,57609860.11373618
3738,6791184.0
2,4, 1, 4, 0, 5, 0.00,60.00,Wednesday
135,57609860.11373618
3420,57609860.11373618
3738,6791184.0
2,4, 1, 4, 0, 6, 0.00,60.00,Wednesday
135,57609860.11373618
3420,57609860.11373618
3738,6791184.0
2,4, 1, 4, 0, 7, 0.00,60.00,Wednesday
135,91742643.67241344
3420,91742643.67241345
3738,6791184.0
2,4, 1, 4, 0, 8, 0.00,60.00,Wednesday
135,145270780.5080789
3420,145270780.50807893
3738,22000724.5839298
2,4, 1, 4, 0, 9, 0.00,60.00,Wednesday
135,299989760.08951116
3420,299989760.08951116
3738,9732435.837714566
2,4, 1, 4, 0,10, 0.00,60.00,Wednesday
135,272063427.49362755
3420,272063427.49362755
3738,6791184.0
2,4, 1, 4, 0,11, 0.00,60.00,Wednesday
135,267378287.04807273
3420,267378287.0480727
3738,20532561.194066033
2,4, 1, 4, 0,12, 0.00,60.00,Wednesday
135,279403108.3953445
3420,279403108.39534444
3738,25795827.418759406
2,4, 1, 4, 0,13, 0.00,60.00,Wednesday
135,283295413.04471695
3420,283295413.04471695
3738,31718516.55588136
2,4, 1, 4, 0,14, 0.00,60.00,Wednesday
135,305018489.69252634
3420,305018489.6925264
3738,30347046.227769367
2,4, 1, 4, 0,15, 0.00,60.00,Wednesday
135,296813718.36889726
3420,296813718.3688972
3738,16702914.003588784
2,4, 1, 4, 0,16, 0.00,60.00,Wednesday
135,298536135.61640126
3420,298536135.61640126
3738,20176310.82859029
2,4, 1, 4, 0,17, 0.00,60.00,Wednesday
135,302839623.29520863
3420,302839623.29520863
3738,23407201.355703916
2,4, 1, 4, 0,18, 0.00,60.00,Wednesday
135,217547667.3559101
3420,217547667.3559101
3738,13069582.930201521
2,4, 1, 4, 0,19, 0.00,60.00,Wednesday
135,130258934.29447977
3420,130258934.29447977
3738,15283001.630523032
2,4, 1, 4, 0,20, 0.00,60.00,Wednesday
135,111733860.17033741
3420,111733860.17033741
3738,6791184.0
2,4, 1, 4, 0,21, 0.00,60.00,Wednesday
135,100936756.74888697
3420,100936756.74888697
3738,10958881.36686923
2,4, 1, 4, 0,22, 0.00,60.00,Wednesday
135,96287113.21615261
3420,96287113.21615261
3738,8039772.939957931
2,4, 1, 4, 0,23, 0.00,60.00,Wednesday
135,77772782.75072592
3420,77772782.75072592
3738,6791184.0
2,4, 1, 4, 0,24, 0.00,60.00,Wednesday
135,72442469.3608459
3420,72442469.36084588
3738,6791184.0
2,5, 1, 5, 0, 1, 0.00,60.00,Thursday
135,58189365.04299053
3420,58189365.04299053
3738,6791184.0
2,5, 1, 5, 0, 2, 0.00,60.00,Thursday
135,57609860.11373618
3420,57609860.11373618
3738,6791184.0
2,5, 1, 5, 0, 3, 0.00,60.00,Thursday
135,57609860.11373618
3420,57609860.11373618
3738,6791184.0
2,5, 1, 5, 0, 4, 0.00,60.00,Thursday
135,57609860.11373618
3420,57609860.11373618
3738,6791184.0
2,5, 1, 5, 0, 5, 0.00,60.00,Thursday
135,57609860.11373618
3420,57609860.11373618
3738,6791184.0
2,5, 1, 5, 0, 6, 0.00,60.00,Thursday
135,57609860.11373618
3420,57609860.11373618
3738,6791184.0
2,5, 1, 5, 0, 7, 0.00,60.00,Thursday
135,91742643.67241344
3420,91742643.67241345
3738,6791184.0
2,5, 1, 5, 0, 8, 0.00,60.00,Thursday
135,145023179.62048513
3420,145023179.62048513
3738,39834655.41462914
2,5, 1, 5, 0, 9, 0.00,60.00,Thursday
135,303018645.574418
3420,303018645.57441795
3738,11960469.498114234
2,5, 1, 5, 0,10, 0.00,60.00,Thursday
135,275519491.1328037
3420,275519491.1328037
3738,6791184.0
2,5, 1, 5, 0,11, 0.00,60.00,Thursday
135,269680800.18867123
3420,269680800.18867123
3738,20535015.417416662
2,5, 1, 5, 0,12, 0.00,60.00,Thursday
135,284725988.7394535
3420,284725988.7394535
3738,25801286.36262582
2,5, 1, 5, 0,13, 0.00,60.00,Thursday
135,289313352.2187593
3420,289313352.2187592
3738,31726878.479955286
2,5, 1, 5, 0,14, 0.00,60.00,Thursday
135,311284589.2369664
3420,311284589.2369664
3738,31389760.137814507
2,5, 1, 5, 0,15, 0.00,60.00,Thursday
135,300927540.3933207
3420,300927540.3933207
3738,15754985.462307392
2,5, 1, 5, 0,16, 0.00,60.00,Thursday
135,304137889.0008284
3420,304137889.0008284
3738,20177586.54365611
2,5, 1, 5, 0,17, 0.00,60.00,Thursday
135,307819385.36255395
3420,307819385.3625539
3738,24973731.245384425
2,5, 1, 5, 0,18, 0.00,60.00,Thursday
135,216723416.56132278
3420,216723416.5613228
3738,11624303.168346347
2,5, 1, 5, 0,19, 0.00,60.00,Thursday
135,129782715.98143856
3420,129782715.98143856
3738,15278268.423129437
2,5, 1, 5, 0,20, 0.00,60.00,Thursday
135,112117797.90831383
3420,112117797.90831384
3738,6791184.0
2,5, 1, 5, 0,21, 0.00,60.00,Thursday
135,101148511.34119204
3420,101148511.34119202
3738,10950615.103207681
2,5, 1, 5, 0,22, 0.00,60.00,Thursday
135,96287113.21615261
3420,96287113.21615261
3738,6929280.435809816
2,5, 1, 5, 0,23, 0.00,60.00,Thursday
135,77772782.75072592
3420,77772782.75072592
3738,6791184.0
2,5, 1, 5, 0,24, 0.00,60.00,Thursday
135,72442469.3608459
3420,72442469.36084588
3738,6791184.0
2,6, 1, 6, 0, 1, 0.00,60.00,Friday
135,58189365.04299053
3420,58189365.04299053
3738,6791184.0
2,6, 1, 6, 0, 2, 0.00,60.00,Friday
135,57609860.11373618
3420,57609860.11373618
3738,6791184.0
2,6, 1, 6, 0, 3, 0.00,60.00,Friday
135,57609860.11373618
3420,57609860.11373618
3738,6791184.0
2,6, 1, 6, 0, 4, 0.00,60.00,Friday
135,57609860.11373618
3420,57609860.11373618
3738,6791184.0
2,6, 1, 6, 0, 5, 0.00,60.00,Friday
135,57609860.11373618
3420,57609860.11373618
3738,6791184.0
2,6, 1, 6, 0, 6, 0.00,60.00,Friday
135,57609860.11373618
3420,57609860.11373618
3738,6791184.0
2,6, 1, 6, 0, 7, 0.00,60.00,Friday
135,91742643.67241344
3420,91742643.67241345
3738,6791184.0
2,6, 1, 6, 0, 8, 0.00,60.00,Friday
135,143718282.07401723
3420,143718282.07401723
3738,31583796.768081017
2,6, 1, 6, 0, 9, 0.00,60.00,Friday
135,304027179.6665565
3420,304027179.6665564
3738,9483061.483610658
2,6, 1, 6, 0,10, 0.00,60.00,Friday
135,277077574.8427737
3420,277077574.8427737
3738,6791184.0
2,6, 1, 6, 0,11, 0.00,60.00,Friday
135,271168882.65883636
3420,271168882.65883636
3738,20537613.21543681
2,6, 1, 6, 0,12, 0.00,60.00,Friday
135,287561853.7172297
3420,287561853.7172297
3738,25806614.2464502
2,6, 1, 6, 0,13, 0.00,60.00,Friday
135,291538115.62979877
3420,291538115.62979877
3738,31734677.844407618
2,6, 1, 6, 0,14, 0.00,60.00,Friday
135,309164438.3233572
3420,309164438.3233572
3738,31395891.326607697
2,6, 1, 6, 0,15, 0.00,60.00,Friday
135,296049432.6549901
3420,296049432.6549901
3738,15754684.9395113
2,6, 1, 6, 0,16, 0.00,60.00,Friday
135,296259731.3999388
3420,296259731.3999388
3738,20176528.70839657
2,6, 1, 6, 0,17, 0.00,60.00,Friday
135,300170159.78268504
3420,300170159.78268504
3738,25534587.781256087
2,6, 1, 6, 0,18, 0.00,60.00,Friday
135,216792148.42329222
3420,216792148.42329228
3738,11124206.715242285
2,6, 1, 6, 0,19, 0.00,60.00,Friday
135,129871710.48571521
3420,129871710.48571521
3738,15266914.815854121
2,6, 1, 6, 0,20, 0.00,60.00,Friday
135,111912935.97220497
3420,111912935.97220495
3738,6791184.0
2,6, 1, 6, 0,21, 0.00,60.00,Friday
135,101020339.29067105
3420,101020339.29067105
3738,10976578.42066797
2,6, 1, 6, 0,22, 0.00,60.00,Friday
135,96287113.21615261
3420,96287113.21615261
3738,6791184.0
2,6, 1, 6, 0,23, 0.00,60.00,Friday
135,77772782.75072592
3420,77772782.75072592
3738,6791184.0
2,6, 1, 6, 0,24, 0.00,60.00,Friday
135,72442469.3608459
3420,72442469.36084588
3738,6791184.0
2,7, 1, 7, 0, 1, 0.00,60.00,Saturday
135,46938652.8740647
3420,46938652.87406469
3738,6791184.0
2,7, 1, 7, 0, 2, 0.00,60.00,Saturday
135,46359235.70955594
3420,46359235.70955593
3738,6791184.0
2,7, 1, 7, 0, 3, 0.00,60.00,Saturday
135,46359235.70955594
3420,46359235.70955593
3738,6791184.0
2,7, 1, 7, 0, 4, 0.00,60.00,Saturday
135,46359235.70955594
3420,46359235.70955593
3738,6791184.0
2,7, 1, 7, 0, 5, 0.00,60.00,Saturday
135,46359235.70955594
3420,46359235.70955593
3738,6791184.0
2,7, 1, 7, 0, 6, 0.00,60.00,Saturday
135,46359235.70955594
3420,46359235.70955593
3738,6791184.0
2,7, 1, 7, 0, 7, 0.00,60.00,Saturday
135,91742643.67241344
3420,91742643.67241345
3738,6791184.0
2,7, 1, 7, 0, 8, 0.00,60.00,Saturday
135,92244215.86820266
3420,92244215.86820267
3738,15024043.436881287
2,7, 1, 7, 0, 9, 0.00,60.00,Saturday
135,120530722.59499814
3420,120530722.59499814
3738,7578090.4874935895
2,7, 1, 7, 0,10, 0.00,60.00,Saturday
135,132402127.7682366
3420,132402127.7682366
3738,6791184.0
2,7, 1, 7, 0,11, 0.00,60.00,Saturday
135,145950998.65019172
3420,145950998.65019175
3738,6791184.0
2,7, 1, 7, 0,12, 0.00,60.00,Saturday
135,165021332.1227432
3420,165021332.1227432
3738,6791184.0
2,7, 1, 7, 0,13, 0.00,60.00,Saturday
135,129085036.20766065
3420,129085036.20766065
3738,6791184.0
2,7, 1, 7, 0,14, 0.00,60.00,Saturday
135,123423380.13976716
3420,123423380.13976716
3738,6791184.0
2,7, 1, 7, 0,15, 0.00,60.00,Saturday
135,118311967.18545476
3420,118311967.18545473
3738,10931902.272973502
2,7, 1, 7, 0,16, 0.00,60.00,Saturday
135,113168593.53292458
3420,113168593.53292456
3738,6791184.0
2,7, 1, 7, 0,17, 0.00,60.00,Saturday
135,106403281.03581904
3420,106403281.03581905
3738,6791184.0
2,7, 1, 7, 0,18, 0.00,60.00,Saturday
135,84515860.7409192
3420,84515860.74091919
3738,6791184.0
2,7, 1, 7, 0,19, 0.00,60.00,Saturday
135,66276703.53612528
3420,66276703.53612528
3738,6791184.0
2,7, 1, 7, 0,20, 0.00,60.00,Saturday
135,49484032.8740647
3420,49484032.87406469
3738,6791184.0
2,7, 1, 7, 0,21, 0.00,60.00,Saturday
135,48904615.70955594
3420,48904615.70955593
3738,6791184.0
2,7, 1, 7, 0,22, 0.00,60.00,Saturday
135,48904615.70955594
3420,48904615.70955593
3738,6791184.0
2,7, 1, 7, 0,23, 0.00,60.00,Saturday
135,48904615.70955594
3420,48904615.70955593
3738,6791184.0
2,7, 1, 7, 0,24, 0.00,60.00,Saturday
135,48904615.70955594
3420,48904615.70955593
3738,6791184.0
2,8, 1, 8, 0, 1, 0.00,60.00,Sunday
135,46359235.70955594
3420,46359235.70955593
3738,6791184.0
2,8, 1, 8, 0, 2, 0.00,60.00,Sunday
135,46359235.70955594
3420,46359235.70955593
3738,6791184.0
2,8, 1, 8, 0, 3, 0.00,60.00,Sunday
135,46359235.70955594
3420,46359235.70955593
3738,6791184.0
2,8, 1, 8, 0, 4, 0.00,60.00,Sunday
135,46359235.70955594
3420,46359235.70955593
3738,6791184.0
2,8, 1, 8, 0, 5, 0.00,60.00,Sunday
135,46359235.70955594
3420,46359235.70955593
3738,6791184.0
2,8, 1, 8, 0, 6, 0.00,60.00,Sunday
135,46359235.70955594
3420,46359235.70955593
3738,6791184.0
2,8, 1, 8, 0, 7, 0.00,60.00,Sunday
135,65909926.82702957
3420,65909926.82702957
3738,6791184.0
2,8, 1, 8, 0, 8, 0.00,60.00,Sunday
135,46846687.25842826
3420,46846687.25842826
3738,6791184.0
2,8, 1, 8, 0, 9, 0.00,60.00,Sunday
135,46288816.32041207
3420,46288816.32041207
3738,6791184.0
2,8, 1, 8, 0,10, 0.00,60.00,Sunday
135,46288812.515972845
3420,46288812.51597284
3738,6791184.0
2,8, 1, 8, 0,11, 0.00,60.00,Sunday
135,68547116.16816773
3420,68547116.16816771
3738,6791184.0
2,8, 1, 8, 0,12, 0.00,60.00,Sunday
135,72965664.17850962
3420,72965664.17850962
3738,6791184.0
2,8, 1, 8, 0,13, 0.00,60.00,Sunday
135,80829659.80312969
3420,80829659.80312969
3738,6791184.0
2,8, 1, 8, 0,14, 0.00,60.00,Sunday
135,86502281.86802411
3420,86502281.86802411
3738,6791184.0
2,8, 1, 8, 0,15, 0.00,60.00,Sunday
135,77475733.75407727
3420,77475733.75407727
3738,6791184.0
2,8, 1, 8, 0,16, 0.00,60.00,Sunday
135,81880915.0852569
3420,81880915.0852569
3738,6791184.0
2,8, 1, 8, 0,17, 0.00,60.00,Sunday
135,81769256.86984941
3420,81769256.8698494
3738,6791184.0
2,8, 1, 8, 0,18, 0.00,60.00,Sunday
135,65651146.366868444
3420,65651146.36686845
3738,6791184.0
2,8, 1, 8, 0,19, 0.00,60.00,Sunday
135,60995602.75335787
3420,60995602.75335787
3738,6791184.0
2,8, 1, 8, 0,20, 0.00,60.00,Sunday
135,48904615.70955594
3420,48904615.70955593
3738,6791184.0
2,8, 1, 8, 0,21, 0.00,60.00,Sunday
135,48904615.70955594
3420,48904615.70955593
3738,6791184.0
2,8, 1, 8, 0,22, 0.00,60.00,Sunday
135,48904615.70955594
3420,48904615.70955593
3738,6791184.0
2,8, 1, 8, 0,23, 0.00,60.00,Sunday
135,48904615.70955594
3420,48904615.70955593
3738,6791184.0
2,8, 1, 8, 0,24, 0.00,60.00,Sunday
135,48904615.70955594
3420,48904615.70955593
3738,6791184.0
2,9, 1, 9, 0, 1, 0.00,60.00,Monday
135,57609860.11373618
3420,57609860.11373618
3738,6791184.0
2,9, 1, 9, 0, 2, 0.00,60.00,Monday
135,57609860.11373618
3420,57609860.11373618
3738,6791184.0
2,9, 1, 9, 0, 3, 0.00,60.00,Monday
135,57609860.11373618
3420,57609860.11373618
3738,6791184.0
2,9, 1, 9, 0, 4, 0.00,60.00,Monday
135,57609860.11373618
3420,57609860.11373618
3738,6791184.0
2,9, 1, 9, 0, 5, 0.00,60.00,Monday
135,57609860.11373618
3420,57609860.11373618
3738,6791184.0
2,9, 1, 9, 0, 6, 0.00,60.00,Monday
135,57609860.11373618
3420,57609860.11373618
3738,6791184.0
2,9, 1, 9, 0, 7, 0.00,60.00,Monday
135,112633159.30793327
3420,112633159.30793327
3738,6791184.0
2,9, 1, 9, 0, 8, 0.00,60.00,Monday
135,165051465.73928842
3420,165051465.73928845
3738,6791184.0
2,9, 1, 9, 0, 9, 0.00,60.00,Monday
135,353122703.09439325
3420,353122703.09439325
3738,6791184.0
2,9, 1, 9, 0,10, 0.00,60.00,Monday
135,337679871.8383162
3420,337679871.8383162
3738,6791184.0
2,9, 1, 9, 0,11, 0.00,60.00,Monday
135,338945171.04710585
3420,338945171.04710585
3738,20542844.574175984
2,9, 1, 9, 0,12, 0.00,60.00,Monday
135,356320601.53962696
3420,356320601.53962696
3738,25818588.126407236
2,9, 1, 9, 0,13, 0.00,60.00,Monday
135,353628119.2624462
3420,353628119.2624462
3738,31758076.765059136
2,9, 1, 9, 0,14, 0.00,60.00,Monday
135,366540505.95185584
3420,366540505.9518559
3738,29981818.35074213
2,9, 1, 9, 0,15, 0.00,60.00,Monday
135,352824647.66759866
3420,352824647.66759866
3738,17076691.1167218
2,9, 1, 9, 0,16, 0.00,60.00,Monday
135,362726258.89134705
3420,362726258.891347
3738,20187282.67685711
2,9, 1, 9, 0,17, 0.00,60.00,Monday
135,365226783.3987662
3420,365226783.3987663
3738,25309018.220889002
2,9, 1, 9, 0,18, 0.00,60.00,Monday
135,271489121.97247964
3420,271489121.9724797
3738,11332017.471547652
2,9, 1, 9, 0,19, 0.00,60.00,Monday
135,178319888.32595092
3420,178319888.32595092
3738,15276565.336755998
2,9, 1, 9, 0,20, 0.00,60.00,Monday
135,156939843.6755985
3420,156939843.6755985
3738,6791184.0
2,9, 1, 9, 0,21, 0.00,60.00,Monday
135,143991031.43670943
3420,143991031.43670943
3738,10973561.13408021
2,9, 1, 9, 0,22, 0.00,60.00,Monday
135,135919886.10712674
3420,135919886.10712677
3738,6791184.0
2,9, 1, 9, 0,23, 0.00,60.00,Monday
135,77772782.75072592
3420,77772782.75072592
3738,6791184.0
2,9, 1, 9, 0,24, 0.00,60.00,Monday
135,72442469.3608459
3420,72442469.36084588
3738,6791184.0
2,10, 1,10, 0, 1, 0.00,60.00,Tuesday
135,58189365.04299053
3420,58189365.04299053
3738,6791184.0
2,10, 1,10, 0, 2, 0.00,60.00,Tuesday
135,57609860.11373618
3420,57609860.11373618
3738,6791184.0
2,10, 1,10, 0, 3, 0.00,60.00,Tuesday
135,57609860.11373618
3420,57609860.11373618
3738,6791184.0
2,10, 1,10, 0, 4, 0.00,60.00,Tuesday
135,57609860.11373618
3420,57609860.11373618
3738,6791184.0
2,10, 1,10, 0, 5, 0.00,60.00,Tuesday
135,57609860.11373618
3420,57609860.11373618
3738,6791184.0
2,10, 1,10, 0, 6, 0.00,60.00,Tuesday
135,57609860.11373618
3420,57609860.11373618
3738,6791184.0
2,10, 1,10, 0, 7, 0.00,60.00,Tuesday
135,116737798.57194482
3420,116737798.57194483
3738,6791184.0
2,10, 1,10, 0, 8, 0.00,60.00,Tuesday
135,170832616.1974384
3420,170832616.19743842
3738,6791184.0
2,10, 1,10, 0, 9, 0.00,60.00,Tuesday
135,347869110.88083094
3420,347869110.88083094
3738,6791184.0
2,10, 1,10, 0,10, 0.00,60.00,Tuesday
135,316451553.7672546
3420,316451553.76725453
3738,6791184.0
2,10, 1,10, 0,11, 0.00,60.00,Tuesday
135,313723382.71507454
3420,313723382.71507454
3738,20551101.76721267
2,10, 1,10, 0,12, 0.00,60.00,Tuesday
135,329108864.8299933
3420,329108864.8299933
3738,25826567.96911305
2,10, 1,10, 0,13, 0.00,60.00,Tuesday
135,329942073.63734406
3420,329942073.637344
3738,31755440.17284086
2,10, 1,10, 0,14, 0.00,60.00,Tuesday
135,349892495.1366669
3420,349892495.136667
3738,31420693.984555393
2,10, 1,10, 0,15, 0.00,60.00,Tuesday
135,334239279.5274987
3420,334239279.5274987
3738,17526187.680883437
2,10, 1,10, 0,16, 0.00,60.00,Tuesday
135,331729226.3551884
3420,331729226.3551884
3738,18417197.973533224
2,10, 1,10, 0,17, 0.00,60.00,Tuesday
135,341482734.72093326
3420,341482734.72093326
3738,25550200.2958652
2,10, 1,10, 0,18, 0.00,60.00,Tuesday
135,262900004.3076976
3420,262900004.30769762
3738,15459241.787996221
2,10, 1,10, 0,19, 0.00,60.00,Tuesday
135,169904408.2033323
3420,169904408.2033323
3738,11042660.085054783
2,10, 1,10, 0,20, 0.00,60.00,Tuesday
135,151301903.95427057
3420,151301903.9542706
3738,6791184.0
2,10, 1,10, 0,21, 0.00,60.00,Tuesday
135,140788687.42523336
3420,140788687.4252334
3738,10973440.77940078
2,10, 1,10, 0,22, 0.00,60.00,Tuesday
135,135335400.22973654
3420,135335400.22973657
3738,6791184.0
2,10, 1,10, 0,23, 0.00,60.00,Tuesday
135,77772782.75072592
3420,77772782.75072592
3738,6791184.0
2,10, 1,10, 0,24, 0.00,60.00,Tuesday
135,72442469.3608459
3420,72442469.36084588
3738,6791184.0
2,11, 1,11, 0, 1, 0.00,60.00,Wednesday
135,58189365.04299053
3420,58189365.04299053
3738,6791184.0
2,11, 1,11, 0, 2, 0.00,60.00,Wednesday
135,57609860.11373618
3420,57609860.11373618
3738,6791184.0
2,11, 1,11, 0, 3, 0.00,60.00,Wednesday
135,57609860.11373618
3420,57609860.11373618
3738,6791184.0
2,11, 1,11, 0, 4, 0.00,60.00,Wednesday
135,57609860.11373618
3420,57609860.11373618
3738,6791184.0
2,11, 1,11, 0, 5, 0.00,60.00,Wednesday
135,57609860.11373618
3420,57609860.11373618
3738,6791184.0
2,11, 1,11, 0, 6, 0.00,60.00,Wednesday
135,57609860.11373618
3420,57609860.11373618
3738,6791184.0
2,11, 1,11, 0, 7, 0.00,60.00,Wednesday
135,120461815.6123389
3420,120461815.61233893
3738,6791184.0
2,11, 1,11, 0, 8, 0.00,60.00,Wednesday
135,172993100.1620188
3420,172993100.1620188
3738,6791184.0
2,11, 1,11, 0, 9, 0.00,60.00,Wednesday
135,350112881.0083472
3420,350112881.0083473
3738,6791184.0
2,11, 1,11, 0,10, 0.00,60.00,Wednesday
135,321480809.7019973
3420,321480809.7019973
3738,6791184.0
2,11, 1,11, 0,11, 0.00,60.00,Wednesday
135,319988748.50406784
3420,319988748.5040679
3738,20553597.845077667
2,11, 1,11, 0,12, 0.00,60.00,Wednesday
135,337167487.5879782
3420,337167487.5879782
3738,25833466.265000165
2,11, 1,11, 0,13, 0.00,60.00,Wednesday
135,342176773.64981955
3420,342176773.64981955
3738,31753663.829778694
2,11, 1,11, 0,14, 0.00,60.00,Wednesday
135,365946092.073087
3420,365946092.0730869
3738,31425066.07764073
2,11, 1,11, 0,15, 0.00,60.00,Wednesday
135,358084701.2710899
3420,358084701.2710899
3738,20280625.951810922
2,11, 1,11, 0,16, 0.00,60.00,Wednesday
135,359115156.2987581
3420,359115156.29875815
3738,15725571.822896045
2,11, 1,11, 0,17, 0.00,60.00,Wednesday
135,361332819.35354525
3420,361332819.35354525
3738,25554303.63335069
2,11, 1,11, 0,18, 0.00,60.00,Wednesday
135,268009484.16732317
3420,268009484.16732317
3738,15446551.139676642
2,11, 1,11, 0,19, 0.00,60.00,Wednesday
135,171287950.59317327
3420,171287950.59317327
3738,11029062.619974079
2,11, 1,11, 0,20, 0.00,60.00,Wednesday
135,149833932.96092126
3420,149833932.96092132
3738,10948264.425867368
2,11, 1,11, 0,21, 0.00,60.00,Wednesday
135,137836444.59880883
3420,137836444.59880885
3738,6791184.0
2,11, 1,11, 0,22, 0.00,60.00,Wednesday
135,131485334.67980406
3420,131485334.67980407
3738,6791184.0
2,11, 1,11, 0,23, 0.00,60.00,Wednesday
135,77772782.75072592
3420,77772782.75072592
3738,6791184.0
2,11, 1,11, 0,24, 0.00,60.00,Wednesday
135,72442469.3608459
3420,72442469.36084588
3738,6791184.0
2,12, 1,12, 0, 1, 0.00,60.00,Thursday
135,58189365.04299053
3420,58189365.04299053
3738,6791184.0
2,12, 1,12, 0, 2, 0.00,60.00,Thursday
135,57609860.11373618
3420,57609860.11373618
3738,6791184.0
2,12, 1,12, 0, 3, 0.00,60.00,Thursday
135,57609860.11373618
3420,57609860.11373618
3738,6791184.0
2,12, 1,12, 0, 4, 0.00,60.00,Thursday
135,57609860.11373618
3420,57609860.11373618
3738,6791184.0
2,12, 1,12, 0, 5, 0.00,60.00,Thursday
135,57609860.11373618
3420,57609860.11373618
3738,6791184.0
2,12, 1,12, 0, 6, 0.00,60.00,Thursday
135,57609860.11373618
3420,57609860.11373618
3738,6791184.0
2,12, 1,12, 0, 7, 0.00,60.00,Thursday
135,105420365.46941513
3420,105420365.46941513
3738,6791184.0
2,12, 1,12, 0, 8, 0.00,60.00,Thursday
135,151649438.5103408
3420,151649438.5103408
3738,6791184.0
2,12, 1,12, 0, 9, 0.00,60.00,Thursday
135,320886637.80935
3420,320886637.80935
3738,6791184.0
2,12, 1,12, 0,10, 0.00,60.00,Thursday
135,293587181.5240697
3420,293587181.52406967
3738,6791184.0
2,12, 1,12, 0,11, 0.00,60.00,Thursday
135,292548424.54957724
3420,292548424.54957724
3738,23586201.43855062
2,12, 1,12, 0,12, 0.00,60.00,Thursday
135,304933170.0010408
3420,304933170.00104076
3738,25636556.73145718
2,12, 1,12, 0,13, 0.00,60.00,Thursday
135,308914798.9985006
3420,308914798.9985006
3738,28670510.418250997
2,12, 1,12, 0,14, 0.00,60.00,Thursday
135,320886685.12328684
3420,320886685.12328684
3738,31431461.259162877
2,12, 1,12, 0,15, 0.00,60.00,Thursday
135,311458788.7026408
3420,311458788.7026408
3738,20274771.19343636
2,12, 1,12, 0,16, 0.00,60.00,Thursday
135,310716175.3854885
3420,310716175.3854885
3738,15720027.81611093
2,12, 1,12, 0,17, 0.00,60.00,Thursday
135,316477824.5549745
3420,316477824.55497456
3738,25559200.219455138
2,12, 1,12, 0,18, 0.00,60.00,Thursday
135,237128483.79815918
3420,237128483.79815918
3738,15476705.880061137
2,12, 1,12, 0,19, 0.00,60.00,Thursday
135,146380990.84898937
3420,146380990.84898937
3738,11043121.949694857
2,12, 1,12, 0,20, 0.00,60.00,Thursday
135,126108213.87647872
3420,126108213.87647875
3738,10932791.516099595
2,12, 1,12, 0,21, 0.00,60.00,Thursday
135,112541356.53647219
3420,112541356.53647219
3738,6791184.0
2,12, 1,12, 0,22, 0.00,60.00,Thursday
135,105539477.16428213
3420,105539477.16428214
3738,6791184.0
2,12, 1,12, 0,23, 0.00,60.00,Thursday
135,77772782.75072592
3420,77772782.75072592
3738,6791184.0
2,12, 1,12, 0,24, 0.00,60.00,Thursday
135,72442469.3608459
3420,72442469.36084588
3738,6791184.0
2,13, 1,13, 0, 1, 0.00,60.00,Friday
135,58189365.04299053
3420,58189365.04299053
3738,6791184.0
2,13, 1,13, 0, 2, 0.00,60.00,Friday
135,57609860.11373618
3420,57609860.11373618
3738,6791184.0
2,13, 1,13, 0, 3, 0.00,60.00,Friday
135,57609860.11373618
3420,57609860.11373618
3738,6791184.0
2,13, 1,13, 0, 4, 0.00,60.00,Friday
135,57609860.11373618
3420,57609860.11373618